192
Lattice="18.372900 0.000000 0.000000 0.000000 10.491800 0.000000 0.000000 0.000000 9.739600" Properties=species:S:1:pos:R:3:forces:R:3 energy=-1126.233527  pbc="T T T"
Li 4.632470 4.278632 0.034456 -1.737638 0.491689 0.935130
Li 1.486652 4.271295 0.034580 -1.052528 0.007391 1.657919
Li 4.550882 0.973821 2.475288 -0.485966 1.114946 0.139847
Li 1.573652 0.979245 2.459996 -0.102621 -0.770195 -0.132023
Li 3.056048 1.792359 0.003003 0.934519 0.090129 0.269477
Li -0.009580 3.463935 2.431975 0.999281 0.447076 0.334983
Li 4.626522 4.281898 4.901054 -0.241924 -0.796563 0.621137
Li 1.501762 4.274882 4.895449 0.681141 0.258923 0.617740
Li 4.560069 0.982755 7.340011 0.650478 -0.964567 -0.503288
Li 1.577306 0.967003 7.331234 0.158282 0.470709 -0.007081
Li 3.063902 1.776236 4.878708 0.239506 -0.286321 -0.050012
Li 0.005849 3.466074 7.308653 -0.727231 -0.469765 -0.396618
Li 4.630617 9.524783 0.030502 0.398401 0.527132 0.551108
Li 1.484391 9.520343 0.035810 0.650129 -0.196146 0.014295
Li 4.547639 6.214534 2.472091 -0.435564 0.704926 -0.894026
Li 1.575318 6.228365 2.467150 -0.044009 -0.667944 -0.514486
Li 3.069174 7.029747 0.005991 0.027326 0.613270 -0.458594
Li -0.003243 8.709662 2.435018 -0.016377 -0.020785 0.002320
Li 4.630182 9.525044 4.898677 -0.706472 0.144200 0.258175
Li 1.496493 9.517576 4.898610 -0.176395 -0.861213 0.157418
Li 4.563199 6.210964 7.336807 0.639175 1.088493 0.372879
Li 1.572510 6.222861 7.326797 0.488735 -1.033097 0.083544
Li 3.068832 7.026796 4.869997 -0.094517 0.650912 0.409136
Li 0.007583 8.716803 7.300550 -1.012662 -0.200808 1.309159
Li 10.747922 4.267422 0.026721 0.745364 1.131081 0.228274
Li 7.621709 4.269768 0.027826 -0.258099 1.172253 -0.047833
Li 10.673037 0.970610 2.468733 0.242373 -1.034533 -0.299148
Li 7.688785 0.973599 2.469347 -0.410471 -0.029854 -0.498843
Li 9.178910 1.791399 -0.006115 -0.309758 -0.128891 -1.498431
Li 6.124708 3.467859 2.439875 -0.129868 0.432171 -0.168444
Li 10.759806 4.267828 4.909803 0.177696 -0.788022 -1.321343
Li 7.609937 4.269919 4.908390 0.030253 -0.710662 0.017023
Li 10.677174 0.968657 7.335072 0.479514 0.486733 -1.004161
Li 7.701506 0.975717 7.326923 -0.833585 0.285657 0.107357
Li 9.188826 1.783918 4.866617 0.573908 -1.340185 -0.383198
Li 6.121719 3.456536 7.309806 0.173271 0.338344 -0.531071
Li 10.762877 9.509368 0.022582 0.304386 1.101492 -0.134346
Li 7.617848 9.513065 0.030992 -0.915187 -1.500031 -0.085907
Li 10.672740 6.213641 2.475519 -0.054283 -0.472354 -0.821514
Li 7.687639 6.211634 2.474969 -0.092535 -0.884448 0.843751
Li 9.181713 7.028575 0.005809 0.383473 -0.190285 0.457856
Li 6.131885 8.700648 2.435070 -0.104659 0.716617 -0.035355
Li 10.754815 9.514689 4.897912 -0.790625 -0.886176 -1.005727
Li 7.621783 9.511011 4.908615 0.143903 0.417785 -0.345419
Li 10.678676 6.223434 7.334774 -0.206791 0.224539 -0.456615
Li 7.684854 6.210313 7.342327 -0.080837 0.322819 -0.018319
Li 9.180427 7.023938 4.874108 -0.312819 -0.882135 -0.096496
Li 6.126763 8.703080 7.298211 -0.758627 1.001620 0.710408
Li 16.877984 4.276867 0.036565 -0.977908 -0.123947 0.203558
Li 13.733607 4.265906 0.026647 -0.028286 0.195787 -0.214687
Li 16.805104 0.982407 2.470594 0.020095 -0.213490 0.058662
Li 13.808608 0.977494 2.469974 -0.506020 -0.221990 0.455233
Li 15.313567 1.774962 -0.009296 -0.066576 1.003072 0.625830
Li 12.249772 3.457557 2.444899 0.482244 -0.331652 0.158416
Li 16.881332 4.280414 4.896040 0.608161 -0.231844 -0.880708
Li 13.734733 4.279979 4.897147 -0.484187 0.775188 -0.701758
Li 16.811541 0.980064 7.342694 0.112628 0.814202 0.034764
Li 13.822279 0.967800 7.328725 0.058711 1.004177 0.417971
Li 15.318897 1.791954 4.876836 0.530501 -0.460024 -0.811171
Li 12.241803 3.453729 7.308219 0.474022 -0.102466 -0.272489
Li 16.888101 9.508829 0.027941 0.077672 0.387668 -0.825541
Li 13.744216 9.508835 0.031445 0.301298 0.103047 -0.561274
Li 16.805734 6.223633 2.469457 0.127069 -0.160855 -0.352976
Li 13.820070 6.224343 2.457913 -0.056183 0.392753 -0.182541
Li 15.309009 7.024981 -0.007858 -0.111258 -0.110154 0.036647
Li 12.253634 8.711796 2.427899 -0.838778 -0.556102 0.008176
Li 16.871610 9.525892 4.897263 -0.226433 0.507315 -0.197058
Li 13.743392 9.511694 4.895023 -0.799555 -0.284367 0.573509
Li 16.801994 6.228775 7.344760 0.142176 0.425537 1.238528
Li 13.821260 6.222773 7.331214 0.256557 0.356787 -0.605032
Li 15.319795 7.038626 4.861033 0.618028 -1.243761 0.471208
Li 12.240199 8.709101 7.312548 0.171409 0.440090 -0.725916
O 4.552421 4.386554 3.012716 0.509575 0.082113 0.997598
O 1.570234 4.373362 3.010452 0.015343 1.850921 0.943752
O 4.625670 0.855552 0.583298 0.138154 -0.131789 -1.204716
O 1.488409 0.863925 0.589370 -1.099852 -0.192107 0.980759
O 3.052868 3.552233 0.689686 -2.141397 1.530366 -0.321668
O 0.005104 1.684421 3.128673 0.469195 -1.498806 -0.326658
O 3.069084 1.846401 3.054102 -0.970595 0.095972 0.276276
O 0.006675 3.403319 0.620240 -0.144446 -0.219765 -1.143373
O 4.559978 4.388479 7.882278 -1.640365 -1.117748 -0.347504
O 1.567745 4.376150 7.883370 0.507242 -0.366664 -1.745742
O 4.630039 0.865765 5.448073 -0.052155 0.145968 -1.566633
O 1.495269 0.865646 5.461192 -0.304861 0.907749 0.051936
O 3.070193 3.557824 5.563986 -0.395169 -0.327075 0.145152
O 0.004386 1.697603 8.000037 0.495430 1.084782 0.121991
O 3.059699 1.858280 7.906096 -0.205975 0.895043 1.520386
O 0.008020 3.395736 5.475101 0.476663 -1.070904 -2.430185
O 4.547775 9.621016 3.022244 1.915795 -0.628811 0.983941
O 1.561695 9.620766 3.023380 -0.331473 -0.461822 1.087395
O 4.642958 6.113199 0.574729 0.392998 0.921789 1.322186
O 1.495133 6.104505 0.574048 0.395499 -0.373922 -0.967933
O 3.066598 8.795476 0.682070 2.639696 -0.455719 0.352918
O 0.000386 6.934817 3.114470 -1.167220 -1.880782 1.278812
O 3.070512 7.098767 3.045956 0.383719 -0.990619 0.372426
O 0.007958 8.648258 0.617984 -1.826227 0.657076 0.045936
O 4.543603 9.634645 7.881096 0.805547 0.679844 0.197033
O 1.575227 9.635326 7.886221 -0.468898 -0.952606 -0.191481
O 4.625013 6.112694 5.456682 0.479335 -0.229345 0.995227
O 1.497756 6.107728 5.449828 -0.443413 1.006132 -2.875390
O 3.065239 8.799047 5.553853 -0.920590 -2.250166 0.298801
O -0.006116 6.941205 7.993029 0.150406 -0.088193 0.130522
O 3.060277 7.099149 7.914964 0.924223 0.585410 0.834457
O 0.008577 8.644170 5.485246 -0.139753 1.883247 -1.487126
O 10.671991 4.379960 3.020304 -0.645074 -0.803775 1.520089
O 7.687068 4.382265 3.014632 -0.442801 0.082901 1.005195
O 10.760513 0.857784 0.590018 1.327913 -0.128178 -1.341430
O 7.615695 0.857980 0.583411 1.094504 -0.426768 -0.352120
O 9.190949 3.551966 0.690825 0.787955 1.296640 -0.324470
O 6.116188 1.698159 3.112067 1.633985 0.354544 1.385877
O 9.178746 1.852843 3.046520 -1.028200 -0.281573 -0.465600
O 6.129062 3.391682 0.619764 -0.640089 0.218816 0.080677
O 10.686335 4.380134 7.891519 -1.207038 -1.483841 0.621297
O 7.695878 4.377879 7.892753 0.439854 -1.382525 0.599897
O 10.764644 0.863969 5.455016 0.472901 -0.358569 0.472793
O 7.620063 0.857228 5.456794 -1.867075 0.899432 0.933132
O 9.185442 3.550345 5.557878 0.078582 1.297871 1.348564
O 6.129272 1.689627 7.994424 -0.644557 0.508511 0.072121
O 9.192714 1.852878 7.916281 -1.378809 1.462341 0.549974
O 6.126157 3.396925 5.472337 0.469482 -0.194706 1.254453
O 10.670793 9.629292 3.020117 1.178649 -1.848908 1.914666
O 7.688891 9.635817 3.011337 -0.932735 -0.183776 -0.627553
O 10.761151 6.100186 0.580132 -0.313443 1.122346 0.475207
O 7.617709 6.107134 0.588482 -0.145346 0.045372 1.129836
O 9.188011 8.807880 0.682267 0.126958 -0.066424 -0.687679
O 6.122788 6.935032 3.117450 2.249152 -0.208772 0.848658
O 9.180970 7.093021 3.048990 0.806516 0.074040 -0.299721
O 6.116211 8.647330 0.605964 0.545061 -0.008854 -1.243524
O 10.668062 9.627469 7.883498 0.835471 -0.113468 -0.505194
O 7.694764 9.621629 7.888504 -0.387619 1.412526 0.681138
O 10.756613 6.104763 5.447324 -0.342762 -0.242368 0.431788
O 7.624300 6.111113 5.456473 0.005579 -1.783639 0.112025
O 9.178115 8.806387 5.564358 0.324141 -0.273783 0.289245
O 6.129783 6.932074 7.984902 -0.661126 0.043286 -0.656249
O 9.193520 7.092418 7.908284 -0.481179 -0.386096 -0.842655
O 6.117906 8.647233 5.480636 0.948005 -0.910956 1.051987
O 16.799142 4.380890 3.009541 0.608543 0.247431 0.718266
O 13.829179 4.382221 3.010066 -1.304400 -0.674109 1.304093
O 16.884998 0.857394 0.581097 0.578181 -0.761902 0.227817
O 13.748481 0.854561 0.590553 -0.348457 1.664954 1.039738
O 15.301198 3.545896 0.682665 -1.815327 1.385709 1.234015
O 12.255855 1.683890 3.112805 0.722061 -0.635308 -0.797859
O 15.301658 1.851093 3.042476 -1.478991 -1.534881 0.709276
O 12.243983 3.399643 0.604900 -1.060022 1.161546 -0.449233
O 16.797425 4.375028 7.890996 -1.314559 0.446160 -0.355267
O 13.827067 4.375774 7.887119 -0.170885 0.327939 -1.265669
O 16.886107 0.854853 5.451644 0.639735 0.040496 -0.428051
O 13.744269 0.872123 5.446863 -0.269018 0.627659 0.809804
O 15.304618 3.551806 5.548396 0.539787 -1.434567 0.311038
O 12.254843 1.684477 7.999499 0.548422 1.004157 -1.457106
O 15.303806 1.842037 7.914176 -1.715775 0.339936 1.227212
O 12.240303 3.403109 5.483702 0.594284 -0.594513 0.939736
O 16.807680 9.625890 3.019244 -1.931194 -0.899989 0.706913
O 13.814118 9.621345 3.026225 0.364920 0.274359 -0.405343
O 16.879060 6.110428 0.593478 1.574188 -0.528050 -0.951861
O 13.736489 6.114966 0.577521 0.358891 0.980995 1.590537
O 15.302830 8.803103 0.681727 -0.269630 0.002004 -1.720917
O 12.251305 6.930625 3.116615 0.540625 -0.804574 -1.239359
O 15.317801 7.092661 3.055058 -0.870945 0.632030 -0.408935
O 12.240152 8.645688 0.608400 -1.381193 -0.877470 0.261470
O 16.806036 9.623263 7.882691 0.271537 -0.349048 -0.213375
O 13.819023 9.636861 7.896099 0.320352 0.710718 -0.991890
O 16.886931 6.112814 5.444680 0.435819 -0.560740 0.574637
O 13.747321 6.100263 5.444560 0.552751 2.543562 -0.106784
O 15.318872 8.798282 5.551600 -0.820730 -0.497672 2.289964
O 12.257515 6.946004 7.990976 -0.330329 0.050568 -1.572642
O 15.316699 7.103098 7.924174 -0.442111 -0.658555 -0.600587
O 12.244071 8.643566 5.483632 0.236188 -0.823145 -0.401724
P 3.061035 3.520910 2.436850 0.926355 1.257844 0.011573
P 0.001527 1.715970 -0.000306 0.237913 0.121096 1.621908
P 3.065202 3.523965 7.294786 0.516302 1.378106 0.510952
P -0.002839 1.714617 4.878663 -0.143194 -0.043921 0.444599
P 3.057646 8.776309 2.430455 -1.071574 1.061562 2.214623
P -0.006751 6.961038 0.005660 -0.493726 -1.818935 -0.701611
P 3.060416 8.778105 7.307177 -1.088416 -0.566734 -1.937474
P 0.007486 6.973861 4.869204 -1.225379 1.969111 -0.914248
P 9.184961 3.527540 2.436065 -0.063752 1.573230 0.663090
P 6.118412 1.717094 -0.001619 0.786111 -0.164292 -0.951068
P 9.178686 3.532449 7.311727 0.315553 -1.934938 -1.376663
P 6.123030 1.725404 4.865738 -0.088603 -1.851444 0.777428
P 9.194931 8.773892 2.427717 0.369181 -2.093650 -0.108934
P 6.120184 6.970166 -0.005693 2.563260 1.308742 -0.952465
P 9.187750 8.781667 7.296390 0.768427 -0.246533 -0.108074
P 6.115269 6.962966 4.865625 0.424962 0.535464 0.836499
P 15.303015 3.536414 2.435334 2.870755 -0.058346 0.377438
P 12.241636 1.717858 -0.006153 0.396584 -1.171136 -1.107541
P 15.308462 3.530507 7.298785 -1.395543 -0.018465 -0.268891
P 12.241576 1.728616 4.874601 1.869200 -1.062589 -2.394953
P 15.304398 8.764770 2.439072 2.958264 -0.787282 0.491205
P 12.247153 6.972961 -0.006900 0.762060 -1.111605 -0.332593
P 15.315217 8.763851 7.303152 -3.022143 2.011195 -2.789057
P 12.257416 6.968634 4.876122 1.896951 2.595709 1.312822
192
Lattice="18.352693 0.000000 0.000000 0.000000 10.480261 0.000000 0.000000 0.000000 9.728888" Properties=species:S:1:pos:R:3:forces:R:3 energy=-1016.81158282  pbc="T T T"
Li 4.275633 4.478200 0.096419 -0.481942 0.477947 -0.766930
Li 1.334821 4.407710 0.223150 0.029105 0.625771 -0.599639
Li 4.544757 1.079931 2.487775 0.453158 -0.322618 0.035249
Li 1.489590 0.761442 2.472915 -0.449524 -0.408828 0.267773
Li 3.159233 1.861665 0.076795 -0.499042 0.808650 -0.098731
Li 0.171932 3.503185 2.556168 -0.073638 -0.797553 0.286055
Li 4.576628 4.290736 4.977491 -0.021427 0.800011 -0.195505
Li 1.631212 4.433903 4.967384 -0.052235 0.461819 -0.164774
Li 4.646251 0.772078 7.234981 -0.341678 -0.091351 -0.078991
Li 1.570051 0.976208 7.313361 -0.155476 -0.318856 0.023025
Li 3.057727 1.795929 4.892476 -0.349902 0.986416 -0.134933
Li 18.232164 3.443377 7.238625 -0.059401 0.022936 -0.032436
Li 4.702424 9.704576 0.122104 -0.040557 0.413151 0.048713
Li 1.689648 9.589453 9.700339 0.405295 0.396481 -0.532622
Li 4.617220 6.303425 2.359019 0.998454 0.017128 0.438732
Li 1.522766 6.072074 2.378700 -0.305328 -0.054323 0.136907
Li 3.123539 7.159156 9.709926 0.259270 0.441150 0.280157
Li 18.328625 8.657294 2.506115 -0.234090 -0.930691 0.198685
Li 4.525972 9.578457 4.917384 0.134183 -0.147065 -0.239190
Li 1.501459 9.548024 4.912718 0.100400 0.997857 -0.094974
Li 4.703417 6.270795 7.370432 0.278634 -0.609111 -0.207222
Li 1.637110 5.986777 7.259761 -0.041972 -0.113976 -0.562360
Li 3.067575 7.067562 4.963074 0.086955 -0.210939 -0.097945
Li 18.214272 8.663765 7.503793 0.135660 -0.610484 -0.585001
Li 10.802592 4.550191 0.065340 -0.549029 0.362232 -0.060614
Li 7.633301 4.544479 0.034888 0.254175 0.270123 0.011202
Li 10.757037 0.705583 2.372009 0.377605 -0.423430 -0.261629
Li 7.583877 0.868386 2.335591 -0.066616 -0.591195 -0.447150
Li 9.174882 1.814720 9.583654 0.314308 0.713090 0.671405
Li 6.108385 3.529334 2.493260 0.057172 -0.544493 0.384912
Li 10.756503 4.211273 4.760323 -0.057034 0.266284 0.661652
Li 7.641744 4.236145 4.940361 -0.030686 0.271422 0.224569
Li 10.763082 0.942023 7.164764 0.041829 -0.665613 -0.054646
Li 7.468170 0.913170 7.348614 -0.595331 -0.542447 0.043305
Li 9.251028 1.630560 4.881625 -0.086979 1.218152 0.162803
Li 6.118864 3.520435 7.290122 -0.172331 -0.592290 0.339283
Li 10.775333 9.742159 9.678173 -0.226406 -0.090923 -0.651182
Li 7.581040 9.358274 9.710724 0.928222 0.449241 -0.312748
Li 10.745406 6.037968 2.356000 0.628628 -0.386142 0.189954
Li 7.649549 5.987160 2.657542 -0.132839 -0.281096 0.345950
Li 9.243852 7.020670 0.120044 -0.041436 0.827043 -0.129242
Li 6.149346 8.745291 2.490929 0.303016 -1.165355 0.231833
Li 10.598546 9.427805 4.776191 -0.154194 0.253498 0.301474
Li 7.685536 9.684098 4.824353 0.226118 0.339197 -0.250877
Li 10.681971 6.077857 7.235197 0.291673 -0.972506 -0.163595
Li 7.628966 6.128204 7.301544 -0.367196 -0.665620 -0.358728
Li 9.179716 6.869428 4.936661 0.410937 0.546873 0.379535
Li 6.034714 8.860202 7.483849 0.210965 -0.787180 0.208888
Li 16.632468 4.296332 0.022844 -0.455557 -0.047792 -0.514382
Li 13.702476 4.433034 0.010591 -0.366820 0.803721 0.127502
Li 16.787033 0.779937 2.454583 -0.179048 -0.830855 -0.333927
Li 13.673675 0.786712 2.503525 -0.242629 -0.723600 -0.377282
Li 15.270879 1.948066 0.252703 -0.262571 0.333331 0.726998
Li 12.288281 3.369513 2.478278 -0.277236 -0.621391 -0.251408
Li 16.895083 4.293526 4.787037 -0.637122 0.319253 0.238631
Li 13.717717 4.469204 4.839143 0.489927 0.165413 0.337107
Li 16.819306 0.977529 7.360349 0.008959 -0.674478 0.179682
Li 13.772087 1.021453 7.363648 -0.256299 -0.479355 -0.249236
Li 15.358946 1.671481 4.844004 -0.278426 0.272673 0.461517
Li 12.273348 3.476995 7.348153 -0.355568 -0.215310 0.349873
Li 16.812313 9.658798 9.586309 -0.664177 0.485274 -0.365234
Li 13.831656 9.637291 9.676338 0.255472 0.611798 -0.034664
Li 16.801919 6.068185 2.425514 -0.359184 -0.603273 0.120618
Li 13.748254 6.192614 2.448674 -0.469645 -0.438153 0.130777
Li 15.312370 7.041611 0.066916 0.103911 0.850706 0.052332
Li 12.192681 8.553788 2.476836 0.617942 -0.802329 0.075856
Li 16.759822 9.672506 4.899916 -0.441990 0.300284 0.150806
Li 13.661305 9.592907 4.974269 0.281289 0.686353 -0.308144
Li 16.862585 6.156280 7.482611 0.337803 -0.582976 -0.485646
Li 13.808835 6.164663 7.215350 -0.364355 -0.424183 -0.120312
Li 15.438774 6.887039 5.030298 0.234465 1.383065 0.095092
Li 12.272365 8.771614 7.240809 -0.074792 -0.653653 0.183666
O 4.249988 4.178251 2.939774 -2.184496 -1.838297 -1.185926
O 1.953219 4.317889 2.962462 2.853263 -1.568225 -0.460254
O 5.011625 1.112343 0.351120 2.581908 2.378869 -0.966456
O 1.090538 1.097546 0.535479 -1.496778 2.047147 -0.541967
O 2.898205 3.652702 1.108243 -0.124171 -0.150717 3.461264
O 0.039292 1.629935 3.466076 -0.181780 0.380602 1.971414
O 2.992241 2.335103 2.908229 -0.017463 4.144372 -1.149615
O 18.295570 2.973713 0.421124 -1.269411 -3.062354 -0.023729
O 4.078330 4.122434 7.747962 -2.225356 -0.856411 -0.128679
O 1.922025 4.160135 7.615155 1.193021 -1.210485 -0.901439
O 4.949929 1.097744 5.183037 1.274560 1.410517 -0.945861
O 1.127367 1.158737 5.325364 -1.806966 1.482545 -0.654601
O 3.047752 3.477817 5.952144 0.102884 -0.924759 2.032653
O 0.039514 1.832557 8.379615 -0.035015 0.529191 2.192507
O 3.063152 2.361394 7.881704 0.200243 3.096108 -0.522042
O 0.049349 2.912762 5.125977 0.075105 -2.693771 -1.182160
O 4.343429 9.404324 2.973432 -2.683710 -1.040389 -0.641287
O 1.941282 9.362131 2.942880 3.012502 -1.974004 -1.277477
O 5.023759 6.462616 0.544604 2.077545 2.742243 -0.847664
O 1.193615 6.321288 0.337117 -2.080147 2.193157 -1.549988
O 3.292734 8.765510 1.133985 0.328510 0.269600 3.025856
O 18.275010 6.875165 3.560897 -0.318786 0.981766 1.531119
O 3.082409 7.485526 2.929619 -0.359794 3.998953 -0.764694
O 18.247594 8.264256 0.459856 0.246633 -3.755137 -1.084420
O 4.259711 9.473189 7.747403 -2.336909 -1.385556 -1.098847
O 1.874039 9.342819 7.699977 1.697101 -1.692284 -1.411223
O 5.029088 6.333768 5.400377 2.474039 2.139615 -0.807543
O 1.131669 6.477633 5.075803 -1.902852 2.890177 -1.281595
O 2.988341 8.600215 5.975417 -0.344473 -0.377915 2.325345
O 0.021941 6.972089 8.398747 0.029810 0.306118 2.541539
O 3.145474 7.593828 7.807264 0.253998 3.425227 -1.043921
O 18.331281 8.395223 5.205353 -0.717261 -2.947612 -1.166985
O 10.267828 4.073668 2.984235 -2.319660 -2.201286 -1.268526
O 8.014386 4.143327 2.974998 2.324252 -2.245660 -0.493680
O 11.206422 1.105765 0.311813 1.990864 2.317126 -1.708627
O 7.339427 1.045926 0.375878 -2.490685 2.016524 -1.993817
O 9.250586 3.649187 1.074131 -0.064839 0.330667 2.874991
O 6.225424 1.782348 3.607532 -0.148426 0.914233 2.017950
O 9.109440 2.248094 2.859331 0.192192 2.988463 -1.038074
O 6.056027 3.000259 0.466557 -0.394256 -3.228825 -0.955470
O 10.244781 4.038169 7.794119 -1.801416 -1.807052 -0.930300
O 8.041153 4.077659 7.781240 1.259353 -1.107913 -1.112167
O 11.146482 1.024416 5.306152 2.372610 1.096096 -1.795291
O 7.112411 1.131620 5.403714 -2.190766 1.049622 -0.227173
O 9.185809 3.565802 6.007704 -0.029641 -1.218268 1.379978
O 6.055223 1.805459 8.383842 -0.195247 1.193778 2.253280
O 9.060603 2.349644 7.731143 -0.378088 1.853267 -2.132114
O 6.144550 2.950910 5.425584 -0.336430 -3.106773 -0.566748
O 10.401178 9.201332 2.996266 -2.680083 -2.975385 -1.742425
O 7.992659 9.363692 2.817615 2.570925 -2.334841 -1.207121
O 11.117373 6.409902 0.461094 2.651827 1.473120 -1.394343
O 7.284380 6.370172 0.537739 -1.791839 2.270216 -0.986505
O 9.239149 8.730077 1.050133 0.672905 -0.931533 3.052029
O 6.299651 6.989806 3.593300 0.145191 1.081110 2.963226
O 9.262788 7.492729 2.855235 0.214805 2.546244 -1.315420
O 6.201497 8.197683 0.355855 0.681301 -3.302944 -1.029637
O 10.389447 9.398701 7.678489 -2.155248 -1.577490 -1.579311
O 8.012926 9.526238 7.807072 2.469909 -1.452784 -0.793594
O 11.096046 6.299115 5.339312 2.829170 1.497293 -1.145493
O 7.278899 6.188149 5.343212 -2.039483 1.581916 -0.581265
O 9.187759 8.702824 5.964636 -0.573526 -1.262001 2.300649
O 6.112974 7.031917 8.344027 0.770803 1.451822 2.873828
O 9.151693 7.525124 7.712354 -0.022249 4.115629 -0.503425
O 6.210423 8.151216 5.424084 0.327142 -3.343809 -0.439055
O 16.528618 4.132923 2.913751 -1.629065 -2.546027 -1.383458
O 14.086065 4.091374 2.991148 2.731209 -2.151777 -0.657277
O 17.257080 1.034743 0.492369 1.992802 2.131321 -0.671768
O 13.359013 1.224426 0.519132 -2.187471 2.244137 -1.249790
O 15.181122 3.606756 1.222322 0.446658 -0.532870 3.164672
O 12.298973 1.663483 3.464915 0.126431 0.157089 2.547226
O 15.218702 2.157746 2.961619 0.860213 3.484353 -0.769208
O 12.174614 3.042682 0.451197 0.235934 -3.484642 -0.514803
O 16.326054 4.166077 7.745429 -2.259002 -2.087060 -0.617170
O 14.129210 4.178019 7.629727 1.441238 -1.495081 -1.483058
O 17.265406 1.095278 5.331862 1.910670 1.994442 -0.043178
O 13.367405 1.121101 5.345516 -1.908933 1.330184 -1.504306
O 15.316110 3.383103 5.955178 -0.218339 -0.917773 2.259626
O 12.289987 1.803327 8.276491 0.303564 0.696385 2.431449
O 15.150536 2.321755 7.896583 -0.178009 3.839227 -0.125547
O 12.296964 2.911184 5.364207 0.131589 -3.544825 -1.632173
O 16.330496 9.278734 2.922774 -1.613183 -2.447070 -1.187592
O 14.185295 9.365027 2.866205 2.108774 -2.688033 -1.033119
O 17.323825 6.250970 0.382849 1.713784 1.195480 -1.144914
O 13.415690 6.385614 0.537445 -2.238958 1.431608 -1.691303
O 15.333237 8.718293 0.951307 0.914002 -1.007442 2.467201
O 12.291052 6.916809 3.424431 0.028329 0.618934 2.699899
O 15.273061 7.548386 2.890483 0.526863 2.967241 -0.593270
O 12.174288 8.112479 0.474999 0.697286 -3.636803 -1.102883
O 16.455289 9.400460 7.701798 -2.320981 -0.953526 -1.508076
O 14.162926 9.465559 7.651366 1.345940 -1.364033 -1.486702
O 17.265554 6.285710 5.410646 2.445874 1.975654 -0.026838
O 13.438283 6.528434 5.313937 -2.033813 1.758263 -0.613365
O 15.212056 8.696130 6.114587 -0.732111 -0.709871 1.908361
O 12.235626 6.982276 8.257408 0.271015 0.515005 2.549053
O 15.225733 7.471739 7.733375 -0.851544 3.419128 -0.698459
O 12.244122 8.139316 5.280750 -0.475828 -2.963288 -1.257472
P 3.085030 3.637561 2.464572 -0.634833 1.605632 1.221706
P 0.026551 1.723112 0.084462 0.156027 -0.038891 0.940725
P 3.066736 3.616419 7.332173 -0.744272 0.356323 0.816855
P 0.021003 1.701448 4.860920 0.795954 -0.586859 -0.881044
P 3.075216 8.808336 2.546742 1.728592 -0.931806 1.124218
P 0.002444 6.873527 9.689123 0.410193 -0.389659 -0.410017
P 3.010357 8.757703 7.235216 -0.503440 -0.555114 0.570780
P 18.304569 7.031434 4.803812 -0.726685 -0.227742 -0.623731
P 9.171037 3.593555 2.487806 -0.467792 -0.495260 0.801600
P 6.155240 1.704468 9.691937 0.110588 0.216644 -0.100099
P 9.176259 3.476007 7.302933 -0.537973 0.293175 1.624172
P 6.123032 1.635553 4.919111 0.089304 -0.208350 0.995187
P 9.216910 8.672171 2.445027 0.164897 -1.180233 0.504069
P 6.240688 7.005494 9.716988 0.288276 -0.060152 0.945830
P 9.229535 8.785881 7.294143 0.302893 0.377973 0.000178
P 6.171116 6.942558 4.938493 1.174251 -1.109584 1.582373
P 15.381955 3.521739 2.508359 -0.910425 -0.704604 2.058078
P 12.256137 1.671887 9.696550 0.082610 0.855447 0.015141
P 15.212757 3.540804 7.304956 -1.079908 0.198952 0.379793
P 12.332845 1.636546 4.810398 0.845873 -1.060380 1.007441
P 15.413995 8.741323 2.479589 -0.424699 0.078106 0.110913
P 12.266670 6.918166 0.010191 -0.426403 0.487612 0.475589
P 15.183892 8.857979 7.206279 -0.300709 0.261007 0.386664
P 12.354214 7.052431 4.939327 0.861802 0.213665 0.221534
192
Lattice="18.482886 0.000000 0.000000 0.000000 10.554607 0.000000 0.000000 0.000000 9.797905" Properties=species:S:1:pos:R:3:forces:R:3 energy=-1041.95567517  pbc="T T T"
Li 4.347103 4.560437 9.711789 0.622201 1.282288 -0.572907
Li 1.272820 4.275879 9.698947 -0.750460 -1.120093 -1.791563
Li 4.588674 0.943004 2.610368 0.116865 -0.426572 0.605473
Li 1.370838 0.656742 2.573023 -0.940684 0.656307 0.644379
Li 2.849010 1.908171 0.076869 -1.231911 -2.273349 1.168820
Li 18.309495 3.267664 2.577926 -2.378975 -0.369490 -0.593116
Li 4.657537 4.333810 4.821822 -0.318824 0.074789 -0.729329
Li 1.403830 4.411679 5.067322 -1.564854 -0.565098 0.119342
Li 4.456023 1.008967 7.325592 -0.660524 2.101284 1.105229
Li 1.495020 1.043143 7.332564 0.223346 0.631184 -0.010298
Li 2.920309 1.997162 4.666714 -0.217224 -1.295081 -1.434908
Li 18.414192 3.541160 7.193402 -0.287528 1.076668 -1.259855
Li 4.679404 9.723217 0.181130 1.100809 -0.125043 0.160427
Li 1.512236 9.589520 0.019876 -1.662795 0.128051 0.832769
Li 4.639496 6.208637 2.597798 -0.660424 -1.137366 0.753885
Li 1.271801 6.282503 2.708608 -2.125586 2.519704 1.313904
Li 3.261541 7.272037 9.725338 0.814209 -1.078805 -0.126939
Li 18.132334 8.716589 2.752708 -0.721975 2.591893 0.530249
Li 4.474076 9.454296 5.000495 -1.222540 -0.581405 0.626892
Li 1.502720 9.530758 4.970566 0.778223 -1.350995 0.103221
Li 4.611033 6.285750 7.383142 -0.592755 0.069288 0.320647
Li 1.356770 6.261898 7.377069 -1.513654 1.480237 2.020752
Li 3.166593 6.944294 4.838999 1.511758 -0.705366 0.225178
Li 0.052089 8.739805 7.392044 0.598768 1.979707 -0.294391
Li 10.496372 4.363093 0.003072 -1.875975 -1.466862 0.256623
Li 7.730735 4.357547 0.220095 1.091090 -2.016984 1.234938
Li 10.903069 0.751018 2.289357 -0.876379 0.541346 0.003372
Li 7.599343 0.824708 2.223920 0.070279 0.462968 0.405313
Li 9.381795 1.644480 9.776612 -0.545936 -4.232677 -0.509723
Li 6.123012 3.480397 2.592260 -0.052605 0.833218 0.323944
Li 10.766836 4.191790 4.855346 -0.357245 -0.911211 -1.578410
Li 7.702166 4.101682 5.067299 0.225805 -0.097741 0.615563
Li 10.563989 0.863017 7.191753 -1.887849 0.185369 -0.941328
Li 7.617677 0.767946 7.351361 2.626966 0.176163 0.109618
Li 8.977343 1.734589 4.989761 -1.360735 -3.083994 0.823826
Li 5.907906 3.433633 7.545254 -0.692323 1.784699 2.273102
Li 10.792455 9.582481 9.519105 -0.578986 -1.259682 -0.363528
Li 7.740853 9.525759 9.720252 -1.252195 1.025283 0.110668
Li 10.572354 6.140484 2.609781 -2.440001 0.530292 1.354548
Li 7.730586 6.196141 2.807321 0.897343 1.640888 0.674207
Li 9.232518 7.026718 9.767748 0.127017 -3.006227 -0.259998
Li 6.311862 8.647649 2.208194 1.657540 1.681929 -3.047924
Li 10.775775 9.472615 5.118957 2.027893 0.043044 1.627069
Li 7.661565 9.591604 5.112917 0.358049 -1.285741 2.630454
Li 10.708435 6.091756 7.305764 -0.860795 1.029650 1.996169
Li 7.620667 6.171818 7.299073 0.496287 1.044293 0.534321
Li 9.178402 7.000790 4.804142 -0.982497 -0.198821 -2.292503
Li 6.211601 8.615391 7.457692 1.184146 -0.221654 -0.492184
Li 16.683444 4.140981 9.663448 1.411211 -1.106586 0.988353
Li 13.804802 4.429580 0.054146 1.648155 -0.580774 0.818158
Li 17.027678 0.623279 2.607372 2.498330 -0.777170 1.825359
Li 13.637105 0.831757 2.385905 -0.486401 2.249756 0.806232
Li 15.140305 1.787841 0.317356 -1.341056 -1.765238 1.005814
Li 12.168637 3.201251 2.450727 -0.579055 0.906682 1.084991
Li 17.027875 4.248131 4.763985 0.890848 -1.224592 -1.046496
Li 13.953433 4.262758 5.033360 0.944104 -0.201643 1.125291
Li 16.788356 0.803276 7.385981 -0.353173 0.319672 0.160250
Li 13.653076 0.885966 7.098334 -1.455947 -0.906390 -1.799583
Li 15.204550 1.857114 4.837789 -0.434571 -1.302917 -0.900822
Li 12.227292 3.600384 7.499281 0.052371 1.555787 1.248529
Li 16.846072 9.484237 9.712350 0.412679 -2.487717 0.226162
Li 13.703919 9.709017 9.795663 -0.390234 -0.536793 -0.587755
Li 16.819035 6.012026 2.390101 1.348325 -0.083419 0.126973
Li 13.815818 6.238117 2.353847 0.825437 0.703225 -0.236865
Li 15.316206 6.940478 0.056613 -0.439641 -2.311517 0.088987
Li 12.270215 8.546401 2.244258 -0.507994 1.389543 -1.881565
Li 16.628550 9.556815 4.776276 -0.660525 -0.636612 -1.931198
Li 13.600492 9.453348 4.818070 -1.336052 -0.258433 -2.178260
Li 17.012763 6.054135 7.489335 1.077226 0.218710 -0.002356
Li 13.707977 6.325680 7.227957 -0.742717 1.594596 -0.236416
Li 15.181507 7.255068 4.849916 -1.950197 0.135141 -3.251246
Li 12.185644 8.703811 7.053508 -1.563833 3.843301 -2.410206
O 4.736907 4.417937 3.056431 4.534226 3.043494 0.896299
O 1.628604 4.496255 3.054052 0.408403 -1.451688 -1.629196
O 4.610537 0.906772 0.499248 0.580968 1.345292 -0.404743
O 1.534746 0.837021 0.643836 1.998569 -2.017150 -1.826550
O 2.875890 3.637593 0.711922 0.808183 -0.740573 -0.781013
O 18.410076 1.612353 2.864169 -1.387558 1.487430 -3.642736
O 2.774720 1.923689 3.035883 -2.612120 -0.849421 0.029349
O 18.266665 3.656874 0.660969 1.377656 4.473939 -0.213889
O 4.757585 4.738484 8.187159 3.717659 3.880121 2.711177
O 1.301589 4.448221 7.865407 -1.317607 0.306374 2.484332
O 4.402781 0.792360 5.380242 2.054144 0.429484 1.308936
O 1.606912 0.695731 5.614840 1.699091 -2.066810 1.070284
O 3.055252 3.414588 5.501925 -1.881335 1.902016 -0.659681
O 18.425923 1.692304 8.094697 -1.071320 -2.617651 0.003984
O 2.941679 1.941830 8.107410 -2.493273 1.788021 -1.189875
O 18.395934 3.614822 5.165179 -0.314796 0.910874 -0.816225
O 4.612411 9.737398 3.165774 3.124980 2.734331 -0.084228
O 1.607659 9.594591 2.998285 2.162180 -1.131665 -1.562307
O 4.724221 6.208269 0.606369 1.760270 -2.061629 0.008633
O 1.558268 6.186886 0.575591 -0.111387 -0.251299 1.257815
O 3.124862 8.970889 0.943033 -2.363689 1.944032 2.214458
O 18.283306 6.996913 2.606784 -0.136496 2.709620 -2.728498
O 3.049029 6.993188 3.072660 1.426642 -2.381128 -0.047544
O 18.472582 8.516290 0.513016 2.794218 -0.936303 -1.384303
O 4.286299 9.714871 7.873929 -2.392190 0.015484 0.642199
O 1.572345 9.721713 7.920780 2.285515 1.728367 2.507062
O 4.509203 5.998812 5.568431 -2.572287 -4.137545 0.372165
O 1.347830 6.532084 5.268195 -4.023485 3.258885 -0.811560
O 3.002886 8.747352 5.325555 1.310577 2.531191 -2.294195
O 18.425317 7.014976 7.629482 0.500796 0.342866 -4.252342
O 3.173047 6.982916 8.181794 -1.348718 -2.646571 1.512132
O 18.325563 8.680882 5.209083 1.257615 -3.572525 -2.389002
O 10.952636 4.295550 3.138614 5.600046 1.446351 -0.337485
O 7.592948 4.386893 3.183754 -1.982894 0.384249 1.511409
O 10.381752 0.720072 0.411977 -5.496683 -1.243691 2.000352
O 7.646956 0.897961 0.359821 0.672035 1.968001 -0.930540
O 9.117901 3.664531 0.705063 -2.491042 -1.890810 -0.957724
O 6.069635 1.744345 2.949316 -2.975443 -2.635081 -2.128977
O 9.058622 1.781303 2.797560 -1.313694 0.774270 -2.613135
O 6.027893 3.295131 0.601644 -0.136989 -2.395709 -1.271777
O 10.720455 4.385257 7.959413 -1.171360 3.375677 -2.357223
O 7.722648 4.434747 7.975686 3.778250 -0.351316 0.557616
O 10.792637 0.813850 5.131026 -1.339335 3.169716 -5.215271
O 8.032480 0.510422 5.691729 8.565850 -3.061013 -1.032107
O 9.198837 3.397716 5.386875 -1.742821 -1.907309 0.477535
O 6.008188 1.780044 7.805996 -1.226420 -1.852743 -2.947693
O 9.102162 1.190139 7.927028 1.843250 -6.155698 3.364631
O 5.968927 3.360938 5.602572 -1.614134 -0.630811 -1.514813